# Time    # Position# Velocity
# t (s)   # x (m)   # v (m/s) 
